
ZCORN
656.08 654.88 654.88 653.73 653.73 652.9 652.9 652.48 652.48 652.35 652.35 652.33 652.33 652.49 652.49 652.99 652.99 653.81 653.81 654.81
655.22 652.89 652.89 650.35 650.35 648.39 648.39 647.16 647.16 646.76 646.76 647.04 647.04 648.16 648.16 649.99 649.99 652.24 652.24 654.66
655.22 652.89 652.89 650.35 650.35 648.39 648.39 647.16 647.16 646.76 646.76 647.04 647.04 648.16 648.16 649.99 649.99 652.24 652.24 654.66
654.32 650.69 650.69 647.15 647.15 644.11 644.11 641.86 641.86 640.94 640.94 641.69 641.69 643.96 643.96 647.15 647.15 650.73 650.73 654.33
654.32 650.69 650.69 647.15 647.15 644.11 644.11 641.86 641.86 640.94 640.94 641.69 641.69 643.96 643.96 647.15 647.15 650.73 650.73 654.33
653.52 648.87 648.87 644.35 644.35 640.4 640.4 637.3 637.3 635.88 635.88 636.9 636.9 640.1 640.1 644.54 644.54 649.32 649.32 654.04
653.52 648.87 648.87 644.35 644.35 640.4 640.4 637.3 637.3 635.88 635.88 636.9 636.9 640.1 640.1 644.54 644.54 649.32 649.32 654.04
652.92 647.74 647.74 642.53 642.53 637.97 637.97 634.31 634.31 632.49 632.49 633.7 633.7 637.39 637.39 642.57 642.57 648.19 648.19 653.71
652.92 647.74 647.74 642.53 642.53 637.97 637.97 634.31 634.31 632.49 632.49 633.7 633.7 637.39 637.39 642.57 642.57 648.19 648.19 653.71
652.45 647.27 647.27 641.95 641.95 637.32 637.32 633.6 633.6 631.67 631.67 632.99 632.99 636.6 636.6 641.74 641.74 647.47 647.47 653.0
652.45 647.27 647.27 641.95 641.95 637.32 637.32 633.6 633.6 631.67 631.67 632.99 632.99 636.6 636.6 641.74 641.74 647.47 647.47 653.0
652.07 647.33 647.33 642.61 642.61 638.52 638.52 635.38 635.38 633.93 633.93 634.83 634.83 637.73 637.73 642.08 642.08 647.01 647.01 651.7
652.07 647.33 647.33 642.61 642.61 638.52 638.52 635.38 635.38 633.93 633.93 634.83 634.83 637.73 637.73 642.08 642.08 647.01 647.01 651.7
651.9 648.04 648.04 644.29 644.29 641.09 641.09 638.74 638.74 637.7 637.7 638.23 638.23 640.23 640.23 643.39 643.39 647.06 647.06 650.62
651.9 648.04 648.04 644.29 644.29 641.09 641.09 638.74 638.74 637.7 637.7 638.23 638.23 640.23 640.23 643.39 643.39 647.06 647.06 650.62
652.02 649.3 649.3 646.68 646.68 644.49 644.49 642.98 642.98 642.36 642.36 642.57 642.57 643.64 643.64 645.45 645.45 648.0 648.0 651.15
652.02 649.3 649.3 646.68 646.68 644.49 644.49 642.98 642.98 642.36 642.36 642.57 642.57 643.64 643.64 645.45 645.45 648.0 648.0 651.15
652.39 650.93 650.93 649.47 649.47 648.3 648.3 647.67 647.67 647.51 647.51 647.32 647.32 647.42 647.42 647.85 647.85 648.88 648.88 650.92
652.39 650.93 650.93 649.47 649.47 648.3 648.3 647.67 647.67 647.51 647.51 647.32 647.32 647.42 647.42 647.85 647.85 648.88 648.88 650.92
652.9 652.68 652.68 652.32 652.32 652.21 652.21 652.68 652.68 653.08 653.08 652.37 652.37 651.4 651.4 650.42 650.42 650.02 650.02 650.44
657.47 656.28 656.28 655.13 655.13 654.3 654.3 653.89 653.89 653.75 653.75 653.73 653.73 653.9 653.9 654.39 654.39 655.21 655.21 656.21
656.62 654.3 654.3 651.76 651.76 649.81 649.81 648.58 648.58 648.18 648.18 648.46 648.46 649.58 649.58 651.41 651.41 653.65 653.65 656.06
656.62 654.3 654.3 651.76 651.76 649.81 649.81 648.58 648.58 648.18 648.18 648.46 648.46 649.58 649.58 651.41 651.41 653.65 653.65 656.06
655.71 652.1 652.1 648.56 648.56 645.54 645.54 643.3 643.3 642.38 642.38 643.13 643.13 645.39 645.39 648.57 648.57 652.14 652.14 655.73
655.71 652.1 652.1 648.56 648.56 645.54 645.54 643.3 643.3 642.38 642.38 643.13 643.13 645.39 645.39 648.57 648.57 652.14 652.14 655.73
654.92 650.28 650.28 645.78 645.78 641.83 641.83 638.75 638.75 637.33 637.33 638.35 638.35 641.54 641.54 645.96 645.96 650.74 650.74 655.44
654.92 650.28 650.28 645.78 645.78 641.83 641.83 638.75 638.75 637.33 637.33 638.35 638.35 641.54 641.54 645.96 645.96 650.74 650.74 655.44
654.32 649.15 649.15 643.96 643.96 639.42 639.42 635.77 635.77 633.95 633.95 635.15 635.15 638.83 638.83 644.0 644.0 649.6 649.6 655.11
654.32 649.15 649.15 643.96 643.96 639.42 639.42 635.77 635.77 633.95 633.95 635.15 635.15 638.83 638.83 644.0 644.0 649.6 649.6 655.11
653.85 648.69 648.69 643.38 643.38 638.77 638.77 635.06 635.06 633.13 633.13 634.45 634.45 638.05 638.05 643.17 643.17 648.88 648.88 654.4
653.85 648.69 648.69 643.38 643.38 638.77 638.77 635.06 635.06 633.13 633.13 634.45 634.45 638.05 638.05 643.17 643.17 648.88 648.88 654.4
653.48 648.75 648.75 644.04 644.04 639.97 639.97 636.84 636.84 635.39 635.39 636.28 636.28 639.17 639.17 643.51 643.51 648.43 648.43 653.11
653.48 648.75 648.75 644.04 644.04 639.97 639.97 636.84 636.84 635.39 635.39 636.28 636.28 639.17 639.17 643.51 643.51 648.43 648.43 653.11
653.31 649.45 649.45 645.72 645.72 642.53 642.53 640.18 640.18 639.15 639.15 639.67 639.67 641.67 641.67 644.82 644.82 648.48 648.48 652.04
653.31 649.45 649.45 645.72 645.72 642.53 642.53 640.18 640.18 639.15 639.15 639.67 639.67 641.67 641.67 644.82 644.82 648.48 648.48 652.04
653.42 650.72 650.72 648.1 648.1 645.91 645.91 644.41 644.41 643.79 643.79 644.0 644.0 645.07 645.07 646.87 646.87 649.43 649.43 652.58
653.42 650.72 650.72 648.1 648.1 645.91 645.91 644.41 644.41 643.79 643.79 644.0 644.0 645.07 645.07 646.87 646.87 649.43 649.43 652.58
653.8 652.33 652.33 650.88 650.88 649.71 649.71 649.09 649.09 648.93 648.93 648.74 648.74 648.84 648.84 649.26 649.26 650.28 650.28 652.31
653.8 652.33 652.33 650.88 650.88 649.71 649.71 649.09 649.09 648.93 648.93 648.74 648.74 648.84 648.84 649.26 649.26 650.28 650.28 652.31
654.3 654.08 654.08 653.72 653.72 653.61 653.61 654.08 654.08 654.48 654.48 653.77 653.77 652.81 652.81 651.83 651.83 651.43 651.43 651.85
657.47 656.28 656.28 655.13 655.13 654.3 654.3 653.89 653.89 653.75 653.75 653.73 653.73 653.9 653.9 654.39 654.39 655.21 655.21 656.21
656.62 654.3 654.3 651.76 651.76 649.81 649.81 648.58 648.58 648.18 648.18 648.46 648.46 649.58 649.58 651.41 651.41 653.65 653.65 656.06
656.62 654.3 654.3 651.76 651.76 649.81 649.81 648.58 648.58 648.18 648.18 648.46 648.46 649.58 649.58 651.41 651.41 653.65 653.65 656.06
655.71 652.1 652.1 648.56 648.56 645.54 645.54 643.3 643.3 642.38 642.38 643.13 643.13 645.39 645.39 648.57 648.57 652.14 652.14 655.73
655.71 652.1 652.1 648.56 648.56 645.54 645.54 643.3 643.3 642.38 642.38 643.13 643.13 645.39 645.39 648.57 648.57 652.14 652.14 655.73
654.92 650.28 650.28 645.78 645.78 641.83 641.83 638.75 638.75 637.33 637.33 638.35 638.35 641.54 641.54 645.96 645.96 650.74 650.74 655.44
654.92 650.28 650.28 645.78 645.78 641.83 641.83 638.75 638.75 637.33 637.33 638.35 638.35 641.54 641.54 645.96 645.96 650.74 650.74 655.44
654.32 649.15 649.15 643.96 643.96 639.42 639.42 635.77 635.77 633.95 633.95 635.15 635.15 638.83 638.83 644.0 644.0 649.6 649.6 655.11
654.32 649.15 649.15 643.96 643.96 639.42 639.42 635.77 635.77 633.95 633.95 635.15 635.15 638.83 638.83 644.0 644.0 649.6 649.6 655.11
653.85 648.69 648.69 643.38 643.38 638.77 638.77 635.06 635.06 633.13 633.13 634.45 634.45 638.05 638.05 643.17 643.17 648.88 648.88 654.4
653.85 648.69 648.69 643.38 643.38 638.77 638.77 635.06 635.06 633.13 633.13 634.45 634.45 638.05 638.05 643.17 643.17 648.88 648.88 654.4
653.48 648.75 648.75 644.04 644.04 639.97 639.97 636.84 636.84 635.39 635.39 636.28 636.28 639.17 639.17 643.51 643.51 648.43 648.43 653.11
653.48 648.75 648.75 644.04 644.04 639.97 639.97 636.84 636.84 635.39 635.39 636.28 636.28 639.17 639.17 643.51 643.51 648.43 648.43 653.11
653.31 649.45 649.45 645.72 645.72 642.53 642.53 640.18 640.18 639.15 639.15 639.67 639.67 641.67 641.67 644.82 644.82 648.48 648.48 652.04
653.31 649.45 649.45 645.72 645.72 642.53 642.53 640.18 640.18 639.15 639.15 639.67 639.67 641.67 641.67 644.82 644.82 648.48 648.48 652.04
653.42 650.72 650.72 648.1 648.1 645.91 645.91 644.41 644.41 643.79 643.79 644.0 644.0 645.07 645.07 646.87 646.87 649.43 649.43 652.58
653.42 650.72 650.72 648.1 648.1 645.91 645.91 644.41 644.41 643.79 643.79 644.0 644.0 645.07 645.07 646.87 646.87 649.43 649.43 652.58
653.8 652.33 652.33 650.88 650.88 649.71 649.71 649.09 649.09 648.93 648.93 648.74 648.74 648.84 648.84 649.26 649.26 650.28 650.28 652.31
653.8 652.33 652.33 650.88 650.88 649.71 649.71 649.09 649.09 648.93 648.93 648.74 648.74 648.84 648.84 649.26 649.26 650.28 650.28 652.31
654.3 654.08 654.08 653.72 653.72 653.61 653.61 654.08 654.08 654.48 654.48 653.77 653.77 652.81 652.81 651.83 651.83 651.43 651.43 651.85
658.87 657.67 657.67 656.53 656.53 655.7 655.7 655.29 655.29 655.15 655.15 655.13 655.13 655.3 655.3 655.79 655.79 656.6 656.6 657.61
658.01 655.7 655.7 653.17 653.17 651.22 651.22 650.0 650.0 649.6 649.6 649.88 649.88 651.0 651.0 652.82 652.82 655.05 655.05 657.46
658.01 655.7 655.7 653.17 653.17 651.22 651.22 650.0 650.0 649.6 649.6 649.88 649.88 651.0 651.0 652.82 652.82 655.05 655.05 657.46
657.11 653.5 653.5 649.98 649.98 646.97 646.97 644.73 644.73 643.81 643.81 644.56 644.56 646.81 646.81 649.99 649.99 653.54 653.54 657.13
657.11 653.5 653.5 649.98 649.98 646.97 646.97 644.73 644.73 643.81 643.81 644.56 644.56 646.81 646.81 649.99 649.99 653.54 653.54 657.13
656.32 651.69 651.69 647.21 647.21 643.27 643.27 640.2 640.2 638.79 638.79 639.8 639.8 642.98 642.98 647.39 647.39 652.15 652.15 656.84
656.32 651.69 651.69 647.21 647.21 643.27 643.27 640.2 640.2 638.79 638.79 639.8 639.8 642.98 642.98 647.39 647.39 652.15 652.15 656.84
655.72 650.57 650.57 645.39 645.39 640.86 640.86 637.22 637.22 635.41 635.41 636.61 636.61 640.28 640.28 645.43 645.43 651.02 651.02 656.51
655.72 650.57 650.57 645.39 645.39 640.86 640.86 637.22 637.22 635.41 635.41 636.61 636.61 640.28 640.28 645.43 645.43 651.02 651.02 656.51
655.26 650.11 650.11 644.82 644.82 640.22 640.22 636.52 636.52 634.6 634.6 635.91 635.91 639.5 639.5 644.61 644.61 650.3 650.3 655.8
655.26 650.11 650.11 644.82 644.82 640.22 640.22 636.52 636.52 634.6 634.6 635.91 635.91 639.5 639.5 644.61 644.61 650.3 650.3 655.8
654.88 650.17 650.17 645.48 645.48 641.41 641.41 638.29 638.29 636.85 636.85 637.74 637.74 640.62 640.62 644.94 644.94 649.85 649.85 654.51
654.88 650.17 650.17 645.48 645.48 641.41 641.41 638.29 638.29 636.85 636.85 637.74 637.74 640.62 640.62 644.94 644.94 649.85 649.85 654.51
654.71 650.87 650.87 647.15 647.15 643.97 643.97 641.63 641.63 640.6 640.6 641.12 641.12 643.11 643.11 646.25 646.25 649.9 649.9 653.46
654.71 650.87 650.87 647.15 647.15 643.97 643.97 641.63 641.63 640.6 640.6 641.12 641.12 643.11 643.11 646.25 646.25 649.9 649.9 653.46
654.83 652.13 652.13 649.52 649.52 647.34 647.34 645.84 645.84 645.22 645.22 645.43 645.43 646.5 646.5 648.3 648.3 650.86 650.86 654.01
654.83 652.13 652.13 649.52 649.52 647.34 647.34 645.84 645.84 645.22 645.22 645.43 645.43 646.5 646.5 648.3 648.3 650.86 650.86 654.01
655.2 653.74 653.74 652.29 652.29 651.13 651.13 650.51 650.51 650.35 650.35 650.15 650.15 650.25 650.25 650.68 650.68 651.69 651.69 653.69
655.2 653.74 653.74 652.29 652.29 651.13 651.13 650.51 650.51 650.35 650.35 650.15 650.15 650.25 650.25 650.68 650.68 651.69 651.69 653.69
655.71 655.48 655.48 655.13 655.13 655.01 655.01 655.49 655.49 655.88 655.88 655.17 655.17 654.21 654.21 653.24 653.24 652.85 652.85 653.27
658.87 657.67 657.67 656.53 656.53 655.7 655.7 655.29 655.29 655.15 655.15 655.13 655.13 655.3 655.3 655.79 655.79 656.6 656.6 657.61
658.01 655.7 655.7 653.17 653.17 651.22 651.22 650.0 650.0 649.6 649.6 649.88 649.88 651.0 651.0 652.82 652.82 655.05 655.05 657.46
658.01 655.7 655.7 653.17 653.17 651.22 651.22 650.0 650.0 649.6 649.6 649.88 649.88 651.0 651.0 652.82 652.82 655.05 655.05 657.46
657.11 653.5 653.5 649.98 649.98 646.97 646.97 644.73 644.73 643.81 643.81 644.56 644.56 646.81 646.81 649.99 649.99 653.54 653.54 657.13
657.11 653.5 653.5 649.98 649.98 646.97 646.97 644.73 644.73 643.81 643.81 644.56 644.56 646.81 646.81 649.99 649.99 653.54 653.54 657.13
656.32 651.69 651.69 647.21 647.21 643.27 643.27 640.2 640.2 638.79 638.79 639.8 639.8 642.98 642.98 647.39 647.39 652.15 652.15 656.84
656.32 651.69 651.69 647.21 647.21 643.27 643.27 640.2 640.2 638.79 638.79 639.8 639.8 642.98 642.98 647.39 647.39 652.15 652.15 656.84
655.72 650.57 650.57 645.39 645.39 640.86 640.86 637.22 637.22 635.41 635.41 636.61 636.61 640.28 640.28 645.43 645.43 651.02 651.02 656.51
655.72 650.57 650.57 645.39 645.39 640.86 640.86 637.22 637.22 635.41 635.41 636.61 636.61 640.28 640.28 645.43 645.43 651.02 651.02 656.51
655.26 650.11 650.11 644.82 644.82 640.22 640.22 636.52 636.52 634.6 634.6 635.91 635.91 639.5 639.5 644.61 644.61 650.3 650.3 655.8
655.26 650.11 650.11 644.82 644.82 640.22 640.22 636.52 636.52 634.6 634.6 635.91 635.91 639.5 639.5 644.61 644.61 650.3 650.3 655.8
654.88 650.17 650.17 645.48 645.48 641.41 641.41 638.29 638.29 636.85 636.85 637.74 637.74 640.62 640.62 644.94 644.94 649.85 649.85 654.51
654.88 650.17 650.17 645.48 645.48 641.41 641.41 638.29 638.29 636.85 636.85 637.74 637.74 640.62 640.62 644.94 644.94 649.85 649.85 654.51
654.71 650.87 650.87 647.15 647.15 643.97 643.97 641.63 641.63 640.6 640.6 641.12 641.12 643.11 643.11 646.25 646.25 649.9 649.9 653.46
654.71 650.87 650.87 647.15 647.15 643.97 643.97 641.63 641.63 640.6 640.6 641.12 641.12 643.11 643.11 646.25 646.25 649.9 649.9 653.46
654.83 652.13 652.13 649.52 649.52 647.34 647.34 645.84 645.84 645.22 645.22 645.43 645.43 646.5 646.5 648.3 648.3 650.86 650.86 654.01
654.83 652.13 652.13 649.52 649.52 647.34 647.34 645.84 645.84 645.22 645.22 645.43 645.43 646.5 646.5 648.3 648.3 650.86 650.86 654.01
655.2 653.74 653.74 652.29 652.29 651.13 651.13 650.51 650.51 650.35 650.35 650.15 650.15 650.25 650.25 650.68 650.68 651.69 651.69 653.69
655.2 653.74 653.74 652.29 652.29 651.13 651.13 650.51 650.51 650.35 650.35 650.15 650.15 650.25 650.25 650.68 650.68 651.69 651.69 653.69
655.71 655.48 655.48 655.13 655.13 655.01 655.01 655.49 655.49 655.88 655.88 655.17 655.17 654.21 654.21 653.24 653.24 652.85 652.85 653.27
660.26 659.07 659.07 657.93 657.93 657.11 657.11 656.69 656.69 656.56 656.56 656.54 656.54 656.7 656.7 657.19 657.19 658.0 658.0 659.0
659.41 657.1 657.1 654.58 654.58 652.64 652.64 651.41 651.41 651.02 651.02 651.29 651.29 652.41 652.41 654.23 654.23 656.46 656.46 658.85
659.41 657.1 657.1 654.58 654.58 652.64 652.64 651.41 651.41 651.02 651.02 651.29 651.29 652.41 652.41 654.23 654.23 656.46 656.46 658.85
658.51 654.91 654.91 651.4 651.4 648.4 648.4 646.16 646.16 645.25 645.25 646.0 646.0 648.24 648.24 651.41 651.41 654.95 654.95 658.53
658.51 654.91 654.91 651.4 651.4 648.4 648.4 646.16 646.16 645.25 645.25 646.0 646.0 648.24 648.24 651.41 651.41 654.95 654.95 658.53
657.72 653.11 653.11 648.63 648.63 644.71 644.71 641.65 641.65 640.24 640.24 641.25 641.25 644.42 644.42 648.82 648.82 653.56 653.56 658.24
657.72 653.11 653.11 648.63 648.63 644.71 644.71 641.65 641.65 640.24 640.24 641.25 641.25 644.42 644.42 648.82 648.82 653.56 653.56 658.24
657.13 651.99 651.99 646.83 646.83 642.31 642.31 638.68 638.68 636.87 636.87 638.07 638.07 641.73 641.73 646.86 646.86 652.43 652.43 657.9
657.13 651.99 651.99 646.83 646.83 642.31 642.31 638.68 638.68 636.87 636.87 638.07 638.07 641.73 641.73 646.86 646.86 652.43 652.43 657.9
656.66 651.53 651.53 646.25 646.25 641.67 641.67 637.98 637.98 636.06 636.06 637.37 637.37 640.95 640.95 646.04 646.04 651.72 651.72 657.2
656.66 651.53 651.53 646.25 646.25 641.67 641.67 637.98 637.98 636.06 636.06 637.37 637.37 640.95 640.95 646.04 646.04 651.72 651.72 657.2
656.29 651.58 651.58 646.91 646.91 642.86 642.86 639.74 639.74 638.3 638.3 639.19 639.19 642.07 642.07 646.38 646.38 651.27 651.27 655.92
656.29 651.58 651.58 646.91 646.91 642.86 642.86 639.74 639.74 638.3 638.3 639.19 639.19 642.07 642.07 646.38 646.38 651.27 651.27 655.92
656.11 652.28 652.28 648.58 648.58 645.4 645.4 643.07 643.07 642.04 642.04 642.56 642.56 644.55 644.55 647.68 647.68 651.32 651.32 654.88
656.11 652.28 652.28 648.58 648.58 645.4 645.4 643.07 643.07 642.04 642.04 642.56 642.56 644.55 644.55 647.68 647.68 651.32 651.32 654.88
656.23 653.54 653.54 650.94 650.94 648.77 648.77 647.27 647.27 646.66 646.66 646.86 646.86 647.93 647.93 649.72 649.72 652.28 652.28 655.44
656.23 653.54 653.54 650.94 650.94 648.77 648.77 647.27 647.27 646.66 646.66 646.86 646.86 647.93 647.93 649.72 649.72 652.28 652.28 655.44
656.6 655.15 655.15 653.71 653.71 652.54 652.54 651.92 651.92 651.76 651.76 651.57 651.57 651.67 651.67 652.1 652.1 653.09 653.09 655.08
656.6 655.15 655.15 653.71 653.71 652.54 652.54 651.92 651.92 651.76 651.76 651.57 651.57 651.67 651.67 652.1 652.1 653.09 653.09 655.08
657.11 656.88 656.88 656.53 656.53 656.42 656.42 656.89 656.89 657.28 657.28 656.58 656.58 655.62 655.62 654.65 654.65 654.26 654.26 654.69
660.26 659.07 659.07 657.93 657.93 657.11 657.11 656.69 656.69 656.56 656.56 656.54 656.54 656.7 656.7 657.19 657.19 658.0 658.0 659.0
659.41 657.1 657.1 654.58 654.58 652.64 652.64 651.41 651.41 651.02 651.02 651.29 651.29 652.41 652.41 654.23 654.23 656.46 656.46 658.85
659.41 657.1 657.1 654.58 654.58 652.64 652.64 651.41 651.41 651.02 651.02 651.29 651.29 652.41 652.41 654.23 654.23 656.46 656.46 658.85
658.51 654.91 654.91 651.4 651.4 648.4 648.4 646.16 646.16 645.25 645.25 646.0 646.0 648.24 648.24 651.41 651.41 654.95 654.95 658.53
658.51 654.91 654.91 651.4 651.4 648.4 648.4 646.16 646.16 645.25 645.25 646.0 646.0 648.24 648.24 651.41 651.41 654.95 654.95 658.53
657.72 653.11 653.11 648.63 648.63 644.71 644.71 641.65 641.65 640.24 640.24 641.25 641.25 644.42 644.42 648.82 648.82 653.56 653.56 658.24
657.72 653.11 653.11 648.63 648.63 644.71 644.71 641.65 641.65 640.24 640.24 641.25 641.25 644.42 644.42 648.82 648.82 653.56 653.56 658.24
657.13 651.99 651.99 646.83 646.83 642.31 642.31 638.68 638.68 636.87 636.87 638.07 638.07 641.73 641.73 646.86 646.86 652.43 652.43 657.9
657.13 651.99 651.99 646.83 646.83 642.31 642.31 638.68 638.68 636.87 636.87 638.07 638.07 641.73 641.73 646.86 646.86 652.43 652.43 657.9
656.66 651.53 651.53 646.25 646.25 641.67 641.67 637.98 637.98 636.06 636.06 637.37 637.37 640.95 640.95 646.04 646.04 651.72 651.72 657.2
656.66 651.53 651.53 646.25 646.25 641.67 641.67 637.98 637.98 636.06 636.06 637.37 637.37 640.95 640.95 646.04 646.04 651.72 651.72 657.2
656.29 651.58 651.58 646.91 646.91 642.86 642.86 639.74 639.74 638.3 638.3 639.19 639.19 642.07 642.07 646.38 646.38 651.27 651.27 655.92
656.29 651.58 651.58 646.91 646.91 642.86 642.86 639.74 639.74 638.3 638.3 639.19 639.19 642.07 642.07 646.38 646.38 651.27 651.27 655.92
656.11 652.28 652.28 648.58 648.58 645.4 645.4 643.07 643.07 642.04 642.04 642.56 642.56 644.55 644.55 647.68 647.68 651.32 651.32 654.88
656.11 652.28 652.28 648.58 648.58 645.4 645.4 643.07 643.07 642.04 642.04 642.56 642.56 644.55 644.55 647.68 647.68 651.32 651.32 654.88
656.23 653.54 653.54 650.94 650.94 648.77 648.77 647.27 647.27 646.66 646.66 646.86 646.86 647.93 647.93 649.72 649.72 652.28 652.28 655.44
656.23 653.54 653.54 650.94 650.94 648.77 648.77 647.27 647.27 646.66 646.66 646.86 646.86 647.93 647.93 649.72 649.72 652.28 652.28 655.44
656.6 655.15 655.15 653.71 653.71 652.54 652.54 651.92 651.92 651.76 651.76 651.57 651.57 651.67 651.67 652.1 652.1 653.09 653.09 655.08
656.6 655.15 655.15 653.71 653.71 652.54 652.54 651.92 651.92 651.76 651.76 651.57 651.57 651.67 651.67 652.1 652.1 653.09 653.09 655.08
657.11 656.88 656.88 656.53 656.53 656.42 656.42 656.89 656.89 657.28 657.28 656.58 656.58 655.62 655.62 654.65 654.65 654.26 654.26 654.69
661.65 660.46 660.46 659.33 659.33 658.51 658.51 658.1 658.1 657.96 657.96 657.94 657.94 658.11 658.11 658.59 658.59 659.4 659.4 660.4
660.8 658.5 658.5 655.99 655.99 654.05 654.05 652.83 652.83 652.44 652.44 652.71 652.71 653.83 653.83 655.64 655.64 657.86 657.86 660.25
660.8 658.5 658.5 655.99 655.99 654.05 654.05 652.83 652.83 652.44 652.44 652.71 652.71 653.83 653.83 655.64 655.64 657.86 657.86 660.25
659.91 656.32 656.32 652.82 652.82 649.82 649.82 647.6 647.6 646.69 646.69 647.43 647.43 649.67 649.67 652.83 652.83 656.36 656.36 659.92
659.91 656.32 656.32 652.82 652.82 649.82 649.82 647.6 647.6 646.69 646.69 647.43 647.43 649.67 649.67 652.83 652.83 656.36 656.36 659.92
659.12 654.52 654.52 650.06 650.06 646.15 646.15 643.09 643.09 641.69 641.69 642.7 642.7 645.86 645.86 650.24 650.24 654.97 654.97 659.64
659.12 654.52 654.52 650.06 650.06 646.15 646.15 643.09 643.09 641.69 641.69 642.7 642.7 645.86 645.86 650.24 650.24 654.97 654.97 659.64
658.53 653.41 653.41 648.26 648.26 643.75 643.75 640.14 640.14 638.33 638.33 639.53 639.53 643.18 643.18 648.3 648.3 653.85 653.85 659.3
658.53 653.41 653.41 648.26 648.26 643.75 643.75 640.14 640.14 638.33 638.33 639.53 639.53 643.18 643.18 648.3 648.3 653.85 653.85 659.3
658.06 652.95 652.95 647.69 647.69 643.11 643.11 639.44 639.44 637.52 637.52 638.83 638.83 642.4 642.4 647.47 647.47 653.14 653.14 658.6
658.06 652.95 652.95 647.69 647.69 643.11 643.11 639.44 639.44 637.52 637.52 638.83 638.83 642.4 642.4 647.47 647.47 653.14 653.14 658.6
657.69 653.0 653.0 648.34 648.34 644.3 644.3 641.2 641.2 639.76 639.76 640.65 640.65 643.51 643.51 647.81 647.81 652.69 652.69 657.32
657.69 653.0 653.0 648.34 648.34 644.3 644.3 641.2 641.2 639.76 639.76 640.65 640.65 643.51 643.51 647.81 647.81 652.69 652.69 657.32
657.52 653.7 653.7 650.0 650.0 646.84 646.84 644.51 644.51 643.49 643.49 644.01 644.01 645.99 645.99 649.11 649.11 652.74 652.74 656.3
657.52 653.7 653.7 650.0 650.0 646.84 646.84 644.51 644.51 643.49 643.49 644.01 644.01 645.99 645.99 649.11 649.11 652.74 652.74 656.3
657.64 654.95 654.95 652.36 652.36 650.19 650.19 648.7 648.7 648.09 648.09 648.3 648.3 649.36 649.36 651.15 651.15 653.71 653.71 656.87
657.64 654.95 654.95 652.36 652.36 650.19 650.19 648.7 648.7 648.09 648.09 648.3 648.3 649.36 649.36 651.15 651.15 653.71 653.71 656.87
658.01 656.56 656.56 655.12 655.12 653.96 653.96 653.34 653.34 653.18 653.18 652.99 652.99 653.09 653.09 653.51 653.51 654.5 654.5 656.46
658.01 656.56 656.56 655.12 655.12 653.96 653.96 653.34 653.34 653.18 653.18 652.99 652.99 653.09 653.09 653.51 653.51 654.5 654.5 656.46
658.51 658.29 658.29 657.93 657.93 657.82 657.82 658.29 658.29 658.69 658.69 657.98 657.98 657.03 657.03 656.06 656.06 655.67 655.67 656.1
661.65 660.46 660.46 659.33 659.33 658.51 658.51 658.1 658.1 657.96 657.96 657.94 657.94 658.11 658.11 658.59 658.59 659.4 659.4 660.4
660.8 658.5 658.5 655.99 655.99 654.05 654.05 652.83 652.83 652.44 652.44 652.71 652.71 653.83 653.83 655.64 655.64 657.86 657.86 660.25
660.8 658.5 658.5 655.99 655.99 654.05 654.05 652.83 652.83 652.44 652.44 652.71 652.71 653.83 653.83 655.64 655.64 657.86 657.86 660.25
659.91 656.32 656.32 652.82 652.82 649.82 649.82 647.6 647.6 646.69 646.69 647.43 647.43 649.67 649.67 652.83 652.83 656.36 656.36 659.92
659.91 656.32 656.32 652.82 652.82 649.82 649.82 647.6 647.6 646.69 646.69 647.43 647.43 649.67 649.67 652.83 652.83 656.36 656.36 659.92
659.12 654.52 654.52 650.06 650.06 646.15 646.15 643.09 643.09 641.69 641.69 642.7 642.7 645.86 645.86 650.24 650.24 654.97 654.97 659.64
659.12 654.52 654.52 650.06 650.06 646.15 646.15 643.09 643.09 641.69 641.69 642.7 642.7 645.86 645.86 650.24 650.24 654.97 654.97 659.64
658.53 653.41 653.41 648.26 648.26 643.75 643.75 640.14 640.14 638.33 638.33 639.53 639.53 643.18 643.18 648.3 648.3 653.85 653.85 659.3
658.53 653.41 653.41 648.26 648.26 643.75 643.75 640.14 640.14 638.33 638.33 639.53 639.53 643.18 643.18 648.3 648.3 653.85 653.85 659.3
658.06 652.95 652.95 647.69 647.69 643.11 643.11 639.44 639.44 637.52 637.52 638.83 638.83 642.4 642.4 647.47 647.47 653.14 653.14 658.6
658.06 652.95 652.95 647.69 647.69 643.11 643.11 639.44 639.44 637.52 637.52 638.83 638.83 642.4 642.4 647.47 647.47 653.14 653.14 658.6
657.69 653.0 653.0 648.34 648.34 644.3 644.3 641.2 641.2 639.76 639.76 640.65 640.65 643.51 643.51 647.81 647.81 652.69 652.69 657.32
657.69 653.0 653.0 648.34 648.34 644.3 644.3 641.2 641.2 639.76 639.76 640.65 640.65 643.51 643.51 647.81 647.81 652.69 652.69 657.32
657.52 653.7 653.7 650.0 650.0 646.84 646.84 644.51 644.51 643.49 643.49 644.01 644.01 645.99 645.99 649.11 649.11 652.74 652.74 656.3
657.52 653.7 653.7 650.0 650.0 646.84 646.84 644.51 644.51 643.49 643.49 644.01 644.01 645.99 645.99 649.11 649.11 652.74 652.74 656.3
657.64 654.95 654.95 652.36 652.36 650.19 650.19 648.7 648.7 648.09 648.09 648.3 648.3 649.36 649.36 651.15 651.15 653.71 653.71 656.87
657.64 654.95 654.95 652.36 652.36 650.19 650.19 648.7 648.7 648.09 648.09 648.3 648.3 649.36 649.36 651.15 651.15 653.71 653.71 656.87
658.01 656.56 656.56 655.12 655.12 653.96 653.96 653.34 653.34 653.18 653.18 652.99 652.99 653.09 653.09 653.51 653.51 654.5 654.5 656.46
658.01 656.56 656.56 655.12 655.12 653.96 653.96 653.34 653.34 653.18 653.18 652.99 652.99 653.09 653.09 653.51 653.51 654.5 654.5 656.46
658.51 658.29 658.29 657.93 657.93 657.82 657.82 658.29 658.29 658.69 658.69 657.98 657.98 657.03 657.03 656.06 656.06 655.67 655.67 656.1
663.04 661.86 661.86 660.72 660.72 659.91 659.91 659.5 659.5 659.36 659.36 659.34 659.34 659.51 659.51 659.99 659.99 660.8 660.8 661.79
662.2 659.9 659.9 657.4 657.4 655.47 655.47 654.25 654.25 653.86 653.86 654.13 654.13 655.24 655.24 657.05 657.05 659.26 659.26 661.65
662.2 659.9 659.9 657.4 657.4 655.47 655.47 654.25 654.25 653.86 653.86 654.13 654.13 655.24 655.24 657.05 657.05 659.26 659.26 661.65
661.3 657.73 657.73 654.24 654.24 651.25 651.25 649.03 649.03 648.12 648.12 648.87 648.87 651.1 651.1 654.25 654.25 657.77 657.77 661.32
661.3 657.73 657.73 654.24 654.24 651.25 651.25 649.03 649.03 648.12 648.12 648.87 648.87 651.1 651.1 654.25 654.25 657.77 657.77 661.32
660.52 655.94 655.94 651.49 651.49 647.59 647.59 644.54 644.54 643.14 643.14 644.15 644.15 647.3 647.3 651.67 651.67 656.39 656.39 661.03
660.52 655.94 655.94 651.49 651.49 647.59 647.59 644.54 644.54 643.14 643.14 644.15 644.15 647.3 647.3 651.67 651.67 656.39 656.39 661.03
659.93 654.82 654.82 649.69 649.69 645.2 645.2 641.59 641.59 639.8 639.8 640.99 640.99 644.62 644.62 649.73 649.73 655.26 655.26 660.7
659.93 654.82 654.82 649.69 649.69 645.2 645.2 641.59 641.59 639.8 639.8 640.99 640.99 644.62 644.62 649.73 649.73 655.26 655.26 660.7
659.47 654.37 654.37 649.12 649.12 644.56 644.56 640.9 640.9 638.99 638.99 640.29 640.29 643.85 643.85 648.91 648.91 654.55 654.55 660.01
659.47 654.37 654.37 649.12 649.12 644.56 644.56 640.9 640.9 638.99 638.99 640.29 640.29 643.85 643.85 648.91 648.91 654.55 654.55 660.01
659.09 654.42 654.42 649.77 649.77 645.75 645.75 642.65 642.65 641.22 641.22 642.1 642.1 644.96 644.96 649.24 649.24 654.11 654.11 658.73
659.09 654.42 654.42 649.77 649.77 645.75 645.75 642.65 642.65 641.22 641.22 642.1 642.1 644.96 644.96 649.24 649.24 654.11 654.11 658.73
658.92 655.12 655.12 651.43 651.43 648.28 648.28 645.96 645.96 644.94 644.94 645.45 645.45 647.43 647.43 650.54 650.54 654.16 654.16 657.72
658.92 655.12 655.12 651.43 651.43 648.28 648.28 645.96 645.96 644.94 644.94 645.45 645.45 647.43 647.43 650.54 650.54 654.16 654.16 657.72
659.04 656.37 656.37 653.78 653.78 651.62 651.62 650.13 650.13 649.52 649.52 649.73 649.73 650.78 650.78 652.57 652.57 655.14 655.14 658.3
659.04 656.37 656.37 653.78 653.78 651.62 651.62 650.13 650.13 649.52 649.52 649.73 649.73 650.78 650.78 652.57 652.57 655.14 655.14 658.3
659.41 657.96 657.96 656.53 656.53 655.37 655.37 654.76 654.76 654.6 654.6 654.41 654.41 654.51 654.51 654.93 654.93 655.91 655.91 657.85
659.41 657.96 657.96 656.53 656.53 655.37 655.37 654.76 654.76 654.6 654.6 654.41 654.41 654.51 654.51 654.93 654.93 655.91 655.91 657.85
659.91 659.69 659.69 659.34 659.34 659.23 659.23 659.69 659.69 660.09 660.09 659.38 659.38 658.43 658.43 657.47 657.47 657.09 657.09 657.52
663.04 661.86 661.86 660.72 660.72 659.91 659.91 659.5 659.5 659.36 659.36 659.34 659.34 659.51 659.51 659.99 659.99 660.8 660.8 661.79
662.2 659.9 659.9 657.4 657.4 655.47 655.47 654.25 654.25 653.86 653.86 654.13 654.13 655.24 655.24 657.05 657.05 659.26 659.26 661.65
662.2 659.9 659.9 657.4 657.4 655.47 655.47 654.25 654.25 653.86 653.86 654.13 654.13 655.24 655.24 657.05 657.05 659.26 659.26 661.65
661.3 657.73 657.73 654.24 654.24 651.25 651.25 649.03 649.03 648.12 648.12 648.87 648.87 651.1 651.1 654.25 654.25 657.77 657.77 661.32
661.3 657.73 657.73 654.24 654.24 651.25 651.25 649.03 649.03 648.12 648.12 648.87 648.87 651.1 651.1 654.25 654.25 657.77 657.77 661.32
660.52 655.94 655.94 651.49 651.49 647.59 647.59 644.54 644.54 643.14 643.14 644.15 644.15 647.3 647.3 651.67 651.67 656.39 656.39 661.03
660.52 655.94 655.94 651.49 651.49 647.59 647.59 644.54 644.54 643.14 643.14 644.15 644.15 647.3 647.3 651.67 651.67 656.39 656.39 661.03
659.93 654.82 654.82 649.69 649.69 645.2 645.2 641.59 641.59 639.8 639.8 640.99 640.99 644.62 644.62 649.73 649.73 655.26 655.26 660.7
659.93 654.82 654.82 649.69 649.69 645.2 645.2 641.59 641.59 639.8 639.8 640.99 640.99 644.62 644.62 649.73 649.73 655.26 655.26 660.7
659.47 654.37 654.37 649.12 649.12 644.56 644.56 640.9 640.9 638.99 638.99 640.29 640.29 643.85 643.85 648.91 648.91 654.55 654.55 660.01
659.47 654.37 654.37 649.12 649.12 644.56 644.56 640.9 640.9 638.99 638.99 640.29 640.29 643.85 643.85 648.91 648.91 654.55 654.55 660.01
659.09 654.42 654.42 649.77 649.77 645.75 645.75 642.65 642.65 641.22 641.22 642.1 642.1 644.96 644.96 649.24 649.24 654.11 654.11 658.73
659.09 654.42 654.42 649.77 649.77 645.75 645.75 642.65 642.65 641.22 641.22 642.1 642.1 644.96 644.96 649.24 649.24 654.11 654.11 658.73
658.92 655.12 655.12 651.43 651.43 648.28 648.28 645.96 645.96 644.94 644.94 645.45 645.45 647.43 647.43 650.54 650.54 654.16 654.16 657.72
658.92 655.12 655.12 651.43 651.43 648.28 648.28 645.96 645.96 644.94 644.94 645.45 645.45 647.43 647.43 650.54 650.54 654.16 654.16 657.72
659.04 656.37 656.37 653.78 653.78 651.62 651.62 650.13 650.13 649.52 649.52 649.73 649.73 650.78 650.78 652.57 652.57 655.14 655.14 658.3
659.04 656.37 656.37 653.78 653.78 651.62 651.62 650.13 650.13 649.52 649.52 649.73 649.73 650.78 650.78 652.57 652.57 655.14 655.14 658.3
659.41 657.96 657.96 656.53 656.53 655.37 655.37 654.76 654.76 654.6 654.6 654.41 654.41 654.51 654.51 654.93 654.93 655.91 655.91 657.85